ITEM: TIMESTEP
0
ITEM: NUMBER OF ATOMS
1000
ITEM: BOX BOUNDS pp pp pp
0 60
0 60
0 60
ITEM: ATOMS id type xs ys zs
1 1 0.050000 0.050000 0.050000
2 1 0.050000 0.050000 0.150000
3 1 0.050000 0.050000 0.250000
4 1 0.050000 0.050000 0.350000
5 1 0.050000 0.050000 0.450000
6 1 0.050000 0.050000 0.550000
7 1 0.050000 0.050000 0.650000
8 1 0.050000 0.050000 0.750000
9 1 0.050000 0.050000 0.850000
10 1 0.050000 0.050000 0.950000
11 1 0.050000 0.150000 0.050000
12 1 0.050000 0.150000 0.150000
13 1 0.050000 0.150000 0.250000
14 1 0.050000 0.150000 0.350000
15 1 0.050000 0.150000 0.450000
16 1 0.050000 0.150000 0.550000
17 1 0.050000 0.150000 0.650000
18 1 0.050000 0.150000 0.750000
19 1 0.050000 0.150000 0.850000
20 1 0.050000 0.150000 0.950000
21 1 0.050000 0.250000 0.050000
22 1 0.050000 0.250000 0.150000
23 1 0.050000 0.250000 0.250000
24 1 0.050000 0.250000 0.350000
25 1 0.050000 0.250000 0.450000
26 1 0.050000 0.250000 0.550000
27 1 0.050000 0.250000 0.650000
28 1 0.050000 0.250000 0.750000
29 1 0.050000 0.250000 0.850000
30 1 0.050000 0.250000 0.950000
31 1 0.050000 0.350000 0.050000
32 1 0.050000 0.350000 0.150000
33 1 0.050000 0.350000 0.250000
34 1 0.050000 0.350000 0.350000
35 1 0.050000 0.350000 0.450000
36 1 0.050000 0.350000 0.550000
37 1 0.050000 0.350000 0.650000
38 1 0.050000 0.350000 0.750000
39 1 0.050000 0.350000 0.850000
40 1 0.050000 0.350000 0.950000
41 1 0.050000 0.450000 0.050000
42 1 0.050000 0.450000 0.150000
43 1 0.050000 0.450000 0.250000
44 1 0.050000 0.450000 0.350000
45 1 0.050000 0.450000 0.450000
46 1 0.050000 0.450000 0.550000
47 1 0.050000 0.450000 0.650000
48 1 0.050000 0.450000 0.750000
49 1 0.050000 0.450000 0.850000
50 1 0.050000 0.450000 0.950000
51 1 0.050000 0.550000 0.050000
52 1 0.050000 0.550000 0.150000
53 1 0.050000 0.550000 0.250000
54 1 0.050000 0.550000 0.350000
55 1 0.050000 0.550000 0.450000
56 1 0.050000 0.550000 0.550000
57 1 0.050000 0.550000 0.650000
58 1 0.050000 0.550000 0.750000
59 1 0.050000 0.550000 0.850000
60 1 0.050000 0.550000 0.950000
61 1 0.050000 0.650000 0.050000
62 1 0.050000 0.650000 0.150000
63 1 0.050000 0.650000 0.250000
64 1 0.050000 0.650000 0.350000
65 1 0.050000 0.650000 0.450000
66 1 0.050000 0.650000 0.550000
67 1 0.050000 0.650000 0.650000
68 1 0.050000 0.650000 0.750000
69 1 0.050000 0.650000 0.850000
70 1 0.050000 0.650000 0.950000
71 1 0.050000 0.750000 0.050000
72 1 0.050000 0.750000 0.150000
73 1 0.050000 0.750000 0.250000
74 1 0.050000 0.750000 0.350000
75 1 0.050000 0.750000 0.450000
76 1 0.050000 0.750000 0.550000
77 1 0.050000 0.750000 0.650000
78 1 0.050000 0.750000 0.750000
79 1 0.050000 0.750000 0.850000
80 1 0.050000 0.750000 0.950000
81 1 0.050000 0.850000 0.050000
82 1 0.050000 0.850000 0.150000
83 1 0.050000 0.850000 0.250000
84 1 0.050000 0.850000 0.350000
85 1 0.050000 0.850000 0.450000
86 1 0.050000 0.850000 0.550000
87 1 0.050000 0.850000 0.650000
88 1 0.050000 0.850000 0.750000
89 1 0.050000 0.850000 0.850000
90 1 0.050000 0.850000 0.950000
91 1 0.050000 0.950000 0.050000
92 1 0.050000 0.950000 0.150000
93 1 0.050000 0.950000 0.250000
94 1 0.050000 0.950000 0.350000
95 1 0.050000 0.950000 0.450000
96 1 0.050000 0.950000 0.550000
97 1 0.050000 0.950000 0.650000
98 1 0.050000 0.950000 0.750000
99 1 0.050000 0.950000 0.850000
100 1 0.050000 0.950000 0.950000
101 1 0.150000 0.050000 0.050000
102 1 0.150000 0.050000 0.150000
103 1 0.150000 0.050000 0.250000
104 1 0.150000 0.050000 0.350000
105 1 0.150000 0.050000 0.450000
106 1 0.150000 0.050000 0.550000
107 1 0.150000 0.050000 0.650000
108 1 0.150000 0.050000 0.750000
109 1 0.150000 0.050000 0.850000
110 1 0.150000 0.050000 0.950000
111 1 0.150000 0.150000 0.050000
112 1 0.150000 0.150000 0.150000
113 1 0.150000 0.150000 0.250000
114 1 0.150000 0.150000 0.350000
115 1 0.150000 0.150000 0.450000
116 1 0.150000 0.150000 0.550000
117 1 0.150000 0.150000 0.650000
118 1 0.150000 0.150000 0.750000
119 1 0.150000 0.150000 0.850000
120 1 0.150000 0.150000 0.950000
121 1 0.150000 0.250000 0.050000
122 1 0.150000 0.250000 0.150000
123 1 0.150000 0.250000 0.250000
124 1 0.150000 0.250000 0.350000
125 1 0.150000 0.250000 0.450000
126 1 0.150000 0.250000 0.550000
127 1 0.150000 0.250000 0.650000
128 1 0.150000 0.250000 0.750000
129 1 0.150000 0.250000 0.850000
130 1 0.150000 0.250000 0.950000
131 1 0.150000 0.350000 0.050000
132 1 0.150000 0.350000 0.150000
133 1 0.150000 0.350000 0.250000
134 1 0.150000 0.350000 0.350000
135 1 0.150000 0.350000 0.450000
136 1 0.150000 0.350000 0.550000
137 1 0.150000 0.350000 0.650000
138 1 0.150000 0.350000 0.750000
139 1 0.150000 0.350000 0.850000
140 1 0.150000 0.350000 0.950000
141 1 0.150000 0.450000 0.050000
142 1 0.150000 0.450000 0.150000
143 1 0.150000 0.450000 0.250000
144 1 0.150000 0.450000 0.350000
145 1 0.150000 0.450000 0.450000
146 1 0.150000 0.450000 0.550000
147 1 0.150000 0.450000 0.650000
148 1 0.150000 0.450000 0.750000
149 1 0.150000 0.450000 0.850000
150 1 0.150000 0.450000 0.950000
151 1 0.150000 0.550000 0.050000
152 1 0.150000 0.550000 0.150000
153 1 0.150000 0.550000 0.250000
154 1 0.150000 0.550000 0.350000
155 1 0.150000 0.550000 0.450000
156 1 0.150000 0.550000 0.550000
157 1 0.150000 0.550000 0.650000
158 1 0.150000 0.550000 0.750000
159 1 0.150000 0.550000 0.850000
160 1 0.150000 0.550000 0.950000
161 1 0.150000 0.650000 0.050000
162 1 0.150000 0.650000 0.150000
163 1 0.150000 0.650000 0.250000
164 1 0.150000 0.650000 0.350000
165 1 0.150000 0.650000 0.450000
166 1 0.150000 0.650000 0.550000
167 1 0.150000 0.650000 0.650000
168 1 0.150000 0.650000 0.750000
169 1 0.150000 0.650000 0.850000
170 1 0.150000 0.650000 0.950000
171 1 0.150000 0.750000 0.050000
172 1 0.150000 0.750000 0.150000
173 1 0.150000 0.750000 0.250000
174 1 0.150000 0.750000 0.350000
175 1 0.150000 0.750000 0.450000
176 1 0.150000 0.750000 0.550000
177 1 0.150000 0.750000 0.650000
178 1 0.150000 0.750000 0.750000
179 1 0.150000 0.750000 0.850000
180 1 0.150000 0.750000 0.950000
181 1 0.150000 0.850000 0.050000
182 1 0.150000 0.850000 0.150000
183 1 0.150000 0.850000 0.250000
184 1 0.150000 0.850000 0.350000
185 1 0.150000 0.850000 0.450000
186 1 0.150000 0.850000 0.550000
187 1 0.150000 0.850000 0.650000
188 1 0.150000 0.850000 0.750000
189 1 0.150000 0.850000 0.850000
190 1 0.150000 0.850000 0.950000
191 1 0.150000 0.950000 0.050000
192 1 0.150000 0.950000 0.150000
193 1 0.150000 0.950000 0.250000
194 1 0.150000 0.950000 0.350000
195 1 0.150000 0.950000 0.450000
196 1 0.150000 0.950000 0.550000
197 1 0.150000 0.950000 0.650000
198 1 0.150000 0.950000 0.750000
199 1 0.150000 0.950000 0.850000
200 1 0.150000 0.950000 0.950000
201 1 0.250000 0.050000 0.050000
202 1 0.250000 0.050000 0.150000
203 1 0.250000 0.050000 0.250000
204 1 0.250000 0.050000 0.350000
205 1 0.250000 0.050000 0.450000
206 1 0.250000 0.050000 0.550000
207 1 0.250000 0.050000 0.650000
208 1 0.250000 0.050000 0.750000
209 1 0.250000 0.050000 0.850000
210 1 0.250000 0.050000 0.950000
211 1 0.250000 0.150000 0.050000
212 1 0.250000 0.150000 0.150000
213 1 0.250000 0.150000 0.250000
214 1 0.250000 0.150000 0.350000
215 1 0.250000 0.150000 0.450000
216 1 0.250000 0.150000 0.550000
217 1 0.250000 0.150000 0.650000
218 1 0.250000 0.150000 0.750000
219 1 0.250000 0.150000 0.850000
220 1 0.250000 0.150000 0.950000
221 1 0.250000 0.250000 0.050000
222 1 0.250000 0.250000 0.150000
223 1 0.250000 0.250000 0.250000
224 1 0.250000 0.250000 0.350000
225 1 0.250000 0.250000 0.450000
226 1 0.250000 0.250000 0.550000
227 1 0.250000 0.250000 0.650000
228 1 0.250000 0.250000 0.750000
229 1 0.250000 0.250000 0.850000
230 1 0.250000 0.250000 0.950000
231 1 0.250000 0.350000 0.050000
232 1 0.250000 0.350000 0.150000
233 1 0.250000 0.350000 0.250000
234 1 0.250000 0.350000 0.350000
235 1 0.250000 0.350000 0.450000
236 1 0.250000 0.350000 0.550000
237 1 0.250000 0.350000 0.650000
238 1 0.250000 0.350000 0.750000
239 1 0.250000 0.350000 0.850000
240 1 0.250000 0.350000 0.950000
241 1 0.250000 0.450000 0.050000
242 1 0.250000 0.450000 0.150000
243 1 0.250000 0.450000 0.250000
244 1 0.250000 0.450000 0.350000
245 1 0.250000 0.450000 0.450000
246 1 0.250000 0.450000 0.550000
247 1 0.250000 0.450000 0.650000
248 1 0.250000 0.450000 0.750000
249 1 0.250000 0.450000 0.850000
250 1 0.250000 0.450000 0.950000
251 1 0.250000 0.550000 0.050000
252 1 0.250000 0.550000 0.150000
253 1 0.250000 0.550000 0.250000
254 1 0.250000 0.550000 0.350000
255 1 0.250000 0.550000 0.450000
256 1 0.250000 0.550000 0.550000
257 1 0.250000 0.550000 0.650000
258 1 0.250000 0.550000 0.750000
259 1 0.250000 0.550000 0.850000
260 1 0.250000 0.550000 0.950000
261 1 0.250000 0.650000 0.050000
262 1 0.250000 0.650000 0.150000
263 1 0.250000 0.650000 0.250000
264 1 0.250000 0.650000 0.350000
265 1 0.250000 0.650000 0.450000
266 1 0.250000 0.650000 0.550000
267 1 0.250000 0.650000 0.650000
268 1 0.250000 0.650000 0.750000
269 1 0.250000 0.650000 0.850000
270 1 0.250000 0.650000 0.950000
271 1 0.250000 0.750000 0.050000
272 1 0.250000 0.750000 0.150000
273 1 0.250000 0.750000 0.250000
274 1 0.250000 0.750000 0.350000
275 1 0.250000 0.750000 0.450000
276 1 0.250000 0.750000 0.550000
277 1 0.250000 0.750000 0.650000
278 1 0.250000 0.750000 0.750000
279 1 0.250000 0.750000 0.850000
280 1 0.250000 0.750000 0.950000
281 1 0.250000 0.850000 0.050000
282 1 0.250000 0.850000 0.150000
283 1 0.250000 0.850000 0.250000
284 1 0.250000 0.850000 0.350000
285 1 0.250000 0.850000 0.450000
286 1 0.250000 0.850000 0.550000
287 1 0.250000 0.850000 0.650000
288 1 0.250000 0.850000 0.750000
289 1 0.250000 0.850000 0.850000
290 1 0.250000 0.850000 0.950000
291 1 0.250000 0.950000 0.050000
292 1 0.250000 0.950000 0.150000
293 1 0.250000 0.950000 0.250000
294 1 0.250000 0.950000 0.350000
295 1 0.250000 0.950000 0.450000
296 1 0.250000 0.950000 0.550000
297 1 0.250000 0.950000 0.650000
298 1 0.250000 0.950000 0.750000
299 1 0.250000 0.950000 0.850000
300 1 0.250000 0.950000 0.950000
301 1 0.350000 0.050000 0.050000
302 1 0.350000 0.050000 0.150000
303 1 0.350000 0.050000 0.250000
304 1 0.350000 0.050000 0.350000
305 1 0.350000 0.050000 0.450000
306 1 0.350000 0.050000 0.550000
307 1 0.350000 0.050000 0.650000
308 1 0.350000 0.050000 0.750000
309 1 0.350000 0.050000 0.850000
310 1 0.350000 0.050000 0.950000
311 1 0.350000 0.150000 0.050000
312 1 0.350000 0.150000 0.150000
313 1 0.350000 0.150000 0.250000
314 1 0.350000 0.150000 0.350000
315 1 0.350000 0.150000 0.450000
316 1 0.350000 0.150000 0.550000
317 1 0.350000 0.150000 0.650000
318 1 0.350000 0.150000 0.750000
319 1 0.350000 0.150000 0.850000
320 1 0.350000 0.150000 0.950000
321 1 0.350000 0.250000 0.050000
322 1 0.350000 0.250000 0.150000
323 1 0.350000 0.250000 0.250000
324 1 0.350000 0.250000 0.350000
325 1 0.350000 0.250000 0.450000
326 1 0.350000 0.250000 0.550000
327 1 0.350000 0.250000 0.650000
328 1 0.350000 0.250000 0.750000
329 1 0.350000 0.250000 0.850000
330 1 0.350000 0.250000 0.950000
331 1 0.350000 0.350000 0.050000
332 1 0.350000 0.350000 0.150000
333 1 0.350000 0.350000 0.250000
334 1 0.350000 0.350000 0.350000
335 1 0.350000 0.350000 0.450000
336 1 0.350000 0.350000 0.550000
337 1 0.350000 0.350000 0.650000
338 1 0.350000 0.350000 0.750000
339 1 0.350000 0.350000 0.850000
340 1 0.350000 0.350000 0.950000
341 1 0.350000 0.450000 0.050000
342 1 0.350000 0.450000 0.150000
343 1 0.350000 0.450000 0.250000
344 1 0.350000 0.450000 0.350000
345 1 0.350000 0.450000 0.450000
346 1 0.350000 0.450000 0.550000
347 1 0.350000 0.450000 0.650000
348 1 0.350000 0.450000 0.750000
349 1 0.350000 0.450000 0.850000
350 1 0.350000 0.450000 0.950000
351 1 0.350000 0.550000 0.050000
352 1 0.350000 0.550000 0.150000
353 1 0.350000 0.550000 0.250000
354 1 0.350000 0.550000 0.350000
355 1 0.350000 0.550000 0.450000
356 1 0.350000 0.550000 0.550000
357 1 0.350000 0.550000 0.650000
358 1 0.350000 0.550000 0.750000
359 1 0.350000 0.550000 0.850000
360 1 0.350000 0.550000 0.950000
361 1 0.350000 0.650000 0.050000
362 1 0.350000 0.650000 0.150000
363 1 0.350000 0.650000 0.250000
364 1 0.350000 0.650000 0.350000
365 1 0.350000 0.650000 0.450000
366 1 0.350000 0.650000 0.550000
367 1 0.350000 0.650000 0.650000
368 1 0.350000 0.650000 0.750000
369 1 0.350000 0.650000 0.850000
370 1 0.350000 0.650000 0.950000
371 1 0.350000 0.750000 0.050000
372 1 0.350000 0.750000 0.150000
373 1 0.350000 0.750000 0.250000
374 1 0.350000 0.750000 0.350000
375 1 0.350000 0.750000 0.450000
376 1 0.350000 0.750000 0.550000
377 1 0.350000 0.750000 0.650000
378 1 0.350000 0.750000 0.750000
379 1 0.350000 0.750000 0.850000
380 1 0.350000 0.750000 0.950000
381 1 0.350000 0.850000 0.050000
382 1 0.350000 0.850000 0.150000
383 1 0.350000 0.850000 0.250000
384 1 0.350000 0.850000 0.350000
385 1 0.350000 0.850000 0.450000
386 1 0.350000 0.850000 0.550000
387 1 0.350000 0.850000 0.650000
388 1 0.350000 0.850000 0.750000
389 1 0.350000 0.850000 0.850000
390 1 0.350000 0.850000 0.950000
391 1 0.350000 0.950000 0.050000
392 1 0.350000 0.950000 0.150000
393 1 0.350000 0.950000 0.250000
394 1 0.350000 0.950000 0.350000
395 1 0.350000 0.950000 0.450000
396 1 0.350000 0.950000 0.550000
397 1 0.350000 0.950000 0.650000
398 1 0.350000 0.950000 0.750000
399 1 0.350000 0.950000 0.850000
400 1 0.350000 0.950000 0.950000
401 1 0.450000 0.050000 0.050000
402 1 0.450000 0.050000 0.150000
403 1 0.450000 0.050000 0.250000
404 1 0.450000 0.050000 0.350000
405 1 0.450000 0.050000 0.450000
406 1 0.450000 0.050000 0.550000
407 1 0.450000 0.050000 0.650000
408 1 0.450000 0.050000 0.750000
409 1 0.450000 0.050000 0.850000
410 1 0.450000 0.050000 0.950000
411 1 0.450000 0.150000 0.050000
412 1 0.450000 0.150000 0.150000
413 1 0.450000 0.150000 0.250000
414 1 0.450000 0.150000 0.350000
415 1 0.450000 0.150000 0.450000
416 1 0.450000 0.150000 0.550000
417 1 0.450000 0.150000 0.650000
418 1 0.450000 0.150000 0.750000
419 1 0.450000 0.150000 0.850000
420 1 0.450000 0.150000 0.950000
421 1 0.450000 0.250000 0.050000
422 1 0.450000 0.250000 0.150000
423 1 0.450000 0.250000 0.250000
424 1 0.450000 0.250000 0.350000
425 1 0.450000 0.250000 0.450000
426 1 0.450000 0.250000 0.550000
427 1 0.450000 0.250000 0.650000
428 1 0.450000 0.250000 0.750000
429 1 0.450000 0.250000 0.850000
430 1 0.450000 0.250000 0.950000
431 1 0.450000 0.350000 0.050000
432 1 0.450000 0.350000 0.150000
433 1 0.450000 0.350000 0.250000
434 1 0.450000 0.350000 0.350000
435 1 0.450000 0.350000 0.450000
436 1 0.450000 0.350000 0.550000
437 1 0.450000 0.350000 0.650000
438 1 0.450000 0.350000 0.750000
439 1 0.450000 0.350000 0.850000
440 1 0.450000 0.350000 0.950000
441 1 0.450000 0.450000 0.050000
442 1 0.450000 0.450000 0.150000
443 1 0.450000 0.450000 0.250000
444 1 0.450000 0.450000 0.350000
445 1 0.450000 0.450000 0.450000
446 1 0.450000 0.450000 0.550000
447 1 0.450000 0.450000 0.650000
448 1 0.450000 0.450000 0.750000
449 1 0.450000 0.450000 0.850000
450 1 0.450000 0.450000 0.950000
451 1 0.450000 0.550000 0.050000
452 1 0.450000 0.550000 0.150000
453 1 0.450000 0.550000 0.250000
454 1 0.450000 0.550000 0.350000
455 1 0.450000 0.550000 0.450000
456 1 0.450000 0.550000 0.550000
457 1 0.450000 0.550000 0.650000
458 1 0.450000 0.550000 0.750000
459 1 0.450000 0.550000 0.850000
460 1 0.450000 0.550000 0.950000
461 1 0.450000 0.650000 0.050000
462 1 0.450000 0.650000 0.150000
463 1 0.450000 0.650000 0.250000
464 1 0.450000 0.650000 0.350000
465 1 0.450000 0.650000 0.450000
466 1 0.450000 0.650000 0.550000
467 1 0.450000 0.650000 0.650000
468 1 0.450000 0.650000 0.750000
469 1 0.450000 0.650000 0.850000
470 1 0.450000 0.650000 0.950000
471 1 0.450000 0.750000 0.050000
472 1 0.450000 0.750000 0.150000
473 1 0.450000 0.750000 0.250000
474 1 0.450000 0.750000 0.350000
475 1 0.450000 0.750000 0.450000
476 1 0.450000 0.750000 0.550000
477 1 0.450000 0.750000 0.650000
478 1 0.450000 0.750000 0.750000
479 1 0.450000 0.750000 0.850000
480 1 0.450000 0.750000 0.950000
481 1 0.450000 0.850000 0.050000
482 1 0.450000 0.850000 0.150000
483 1 0.450000 0.850000 0.250000
484 1 0.450000 0.850000 0.350000
485 1 0.450000 0.850000 0.450000
486 1 0.450000 0.850000 0.550000
487 1 0.450000 0.850000 0.650000
488 1 0.450000 0.850000 0.750000
489 1 0.450000 0.850000 0.850000
490 1 0.450000 0.850000 0.950000
491 1 0.450000 0.950000 0.050000
492 1 0.450000 0.950000 0.150000
493 1 0.450000 0.950000 0.250000
494 1 0.450000 0.950000 0.350000
495 1 0.450000 0.950000 0.450000
496 1 0.450000 0.950000 0.550000
497 1 0.450000 0.950000 0.650000
498 1 0.450000 0.950000 0.750000
499 1 0.450000 0.950000 0.850000
500 1 0.450000 0.950000 0.950000
501 1 0.550000 0.050000 0.050000
502 1 0.550000 0.050000 0.150000
503 1 0.550000 0.050000 0.250000
504 1 0.550000 0.050000 0.350000
505 1 0.550000 0.050000 0.450000
506 1 0.550000 0.050000 0.550000
507 1 0.550000 0.050000 0.650000
508 1 0.550000 0.050000 0.750000
509 1 0.550000 0.050000 0.850000
510 1 0.550000 0.050000 0.950000
511 1 0.550000 0.150000 0.050000
512 1 0.550000 0.150000 0.150000
513 1 0.550000 0.150000 0.250000
514 1 0.550000 0.150000 0.350000
515 1 0.550000 0.150000 0.450000
516 1 0.550000 0.150000 0.550000
517 1 0.550000 0.150000 0.650000
518 1 0.550000 0.150000 0.750000
519 1 0.550000 0.150000 0.850000
520 1 0.550000 0.150000 0.950000
521 1 0.550000 0.250000 0.050000
522 1 0.550000 0.250000 0.150000
523 1 0.550000 0.250000 0.250000
524 1 0.550000 0.250000 0.350000
525 1 0.550000 0.250000 0.450000
526 1 0.550000 0.250000 0.550000
527 1 0.550000 0.250000 0.650000
528 1 0.550000 0.250000 0.750000
529 1 0.550000 0.250000 0.850000
530 1 0.550000 0.250000 0.950000
531 1 0.550000 0.350000 0.050000
532 1 0.550000 0.350000 0.150000
533 1 0.550000 0.350000 0.250000
534 1 0.550000 0.350000 0.350000
535 1 0.550000 0.350000 0.450000
536 1 0.550000 0.350000 0.550000
537 1 0.550000 0.350000 0.650000
538 1 0.550000 0.350000 0.750000
539 1 0.550000 0.350000 0.850000
540 1 0.550000 0.350000 0.950000
541 1 0.550000 0.450000 0.050000
542 1 0.550000 0.450000 0.150000
543 1 0.550000 0.450000 0.250000
544 1 0.550000 0.450000 0.350000
545 1 0.550000 0.450000 0.450000
546 1 0.550000 0.450000 0.550000
547 1 0.550000 0.450000 0.650000
548 1 0.550000 0.450000 0.750000
549 1 0.550000 0.450000 0.850000
550 1 0.550000 0.450000 0.950000
551 1 0.550000 0.550000 0.050000
552 1 0.550000 0.550000 0.150000
553 1 0.550000 0.550000 0.250000
554 1 0.550000 0.550000 0.350000
555 1 0.550000 0.550000 0.450000
556 1 0.550000 0.550000 0.550000
557 1 0.550000 0.550000 0.650000
558 1 0.550000 0.550000 0.750000
559 1 0.550000 0.550000 0.850000
560 1 0.550000 0.550000 0.950000
561 1 0.550000 0.650000 0.050000
562 1 0.550000 0.650000 0.150000
563 1 0.550000 0.650000 0.250000
564 1 0.550000 0.650000 0.350000
565 1 0.550000 0.650000 0.450000
566 1 0.550000 0.650000 0.550000
567 1 0.550000 0.650000 0.650000
568 1 0.550000 0.650000 0.750000
569 1 0.550000 0.650000 0.850000
570 1 0.550000 0.650000 0.950000
571 1 0.550000 0.750000 0.050000
572 1 0.550000 0.750000 0.150000
573 1 0.550000 0.750000 0.250000
574 1 0.550000 0.750000 0.350000
575 1 0.550000 0.750000 0.450000
576 1 0.550000 0.750000 0.550000
577 1 0.550000 0.750000 0.650000
578 1 0.550000 0.750000 0.750000
579 1 0.550000 0.750000 0.850000
580 1 0.550000 0.750000 0.950000
581 1 0.550000 0.850000 0.050000
582 1 0.550000 0.850000 0.150000
583 1 0.550000 0.850000 0.250000
584 1 0.550000 0.850000 0.350000
585 1 0.550000 0.850000 0.450000
586 1 0.550000 0.850000 0.550000
587 1 0.550000 0.850000 0.650000
588 1 0.550000 0.850000 0.750000
589 1 0.550000 0.850000 0.850000
590 1 0.550000 0.850000 0.950000
591 1 0.550000 0.950000 0.050000
592 1 0.550000 0.950000 0.150000
593 1 0.550000 0.950000 0.250000
594 1 0.550000 0.950000 0.350000
595 1 0.550000 0.950000 0.450000
596 1 0.550000 0.950000 0.550000
597 1 0.550000 0.950000 0.650000
598 1 0.550000 0.950000 0.750000
599 1 0.550000 0.950000 0.850000
600 1 0.550000 0.950000 0.950000
601 1 0.650000 0.050000 0.050000
602 1 0.650000 0.050000 0.150000
603 1 0.650000 0.050000 0.250000
604 1 0.650000 0.050000 0.350000
605 1 0.650000 0.050000 0.450000
606 1 0.650000 0.050000 0.550000
607 1 0.650000 0.050000 0.650000
608 1 0.650000 0.050000 0.750000
609 1 0.650000 0.050000 0.850000
610 1 0.650000 0.050000 0.950000
611 1 0.650000 0.150000 0.050000
612 1 0.650000 0.150000 0.150000
613 1 0.650000 0.150000 0.250000
614 1 0.650000 0.150000 0.350000
615 1 0.650000 0.150000 0.450000
616 1 0.650000 0.150000 0.550000
617 1 0.650000 0.150000 0.650000
618 1 0.650000 0.150000 0.750000
619 1 0.650000 0.150000 0.850000
620 1 0.650000 0.150000 0.950000
621 1 0.650000 0.250000 0.050000
622 1 0.650000 0.250000 0.150000
623 1 0.650000 0.250000 0.250000
624 1 0.650000 0.250000 0.350000
625 1 0.650000 0.250000 0.450000
626 1 0.650000 0.250000 0.550000
627 1 0.650000 0.250000 0.650000
628 1 0.650000 0.250000 0.750000
629 1 0.650000 0.250000 0.850000
630 1 0.650000 0.250000 0.950000
631 1 0.650000 0.350000 0.050000
632 1 0.650000 0.350000 0.150000
633 1 0.650000 0.350000 0.250000
634 1 0.650000 0.350000 0.350000
635 1 0.650000 0.350000 0.450000
636 1 0.650000 0.350000 0.550000
637 1 0.650000 0.350000 0.650000
638 1 0.650000 0.350000 0.750000
639 1 0.650000 0.350000 0.850000
640 1 0.650000 0.350000 0.950000
641 1 0.650000 0.450000 0.050000
642 1 0.650000 0.450000 0.150000
643 1 0.650000 0.450000 0.250000
644 1 0.650000 0.450000 0.350000
645 1 0.650000 0.450000 0.450000
646 1 0.650000 0.450000 0.550000
647 1 0.650000 0.450000 0.650000
648 1 0.650000 0.450000 0.750000
649 1 0.650000 0.450000 0.850000
650 1 0.650000 0.450000 0.950000
651 1 0.650000 0.550000 0.050000
652 1 0.650000 0.550000 0.150000
653 1 0.650000 0.550000 0.250000
654 1 0.650000 0.550000 0.350000
655 1 0.650000 0.550000 0.450000
656 1 0.650000 0.550000 0.550000
657 1 0.650000 0.550000 0.650000
658 1 0.650000 0.550000 0.750000
659 1 0.650000 0.550000 0.850000
660 1 0.650000 0.550000 0.950000
661 1 0.650000 0.650000 0.050000
662 1 0.650000 0.650000 0.150000
663 1 0.650000 0.650000 0.250000
664 1 0.650000 0.650000 0.350000
665 1 0.650000 0.650000 0.450000
666 1 0.650000 0.650000 0.550000
667 1 0.650000 0.650000 0.650000
668 1 0.650000 0.650000 0.750000
669 1 0.650000 0.650000 0.850000
670 1 0.650000 0.650000 0.950000
671 1 0.650000 0.750000 0.050000
672 1 0.650000 0.750000 0.150000
673 1 0.650000 0.750000 0.250000
674 1 0.650000 0.750000 0.350000
675 1 0.650000 0.750000 0.450000
676 1 0.650000 0.750000 0.550000
677 1 0.650000 0.750000 0.650000
678 1 0.650000 0.750000 0.750000
679 1 0.650000 0.750000 0.850000
680 1 0.650000 0.750000 0.950000
681 1 0.650000 0.850000 0.050000
682 1 0.650000 0.850000 0.150000
683 1 0.650000 0.850000 0.250000
684 1 0.650000 0.850000 0.350000
685 1 0.650000 0.850000 0.450000
686 1 0.650000 0.850000 0.550000
687 1 0.650000 0.850000 0.650000
688 1 0.650000 0.850000 0.750000
689 1 0.650000 0.850000 0.850000
690 1 0.650000 0.850000 0.950000
691 1 0.650000 0.950000 0.050000
692 1 0.650000 0.950000 0.150000
693 1 0.650000 0.950000 0.250000
694 1 0.650000 0.950000 0.350000
695 1 0.650000 0.950000 0.450000
696 1 0.650000 0.950000 0.550000
697 1 0.650000 0.950000 0.650000
698 1 0.650000 0.950000 0.750000
699 1 0.650000 0.950000 0.850000
700 1 0.650000 0.950000 0.950000
701 1 0.750000 0.050000 0.050000
702 1 0.750000 0.050000 0.150000
703 1 0.750000 0.050000 0.250000
704 1 0.750000 0.050000 0.350000
705 1 0.750000 0.050000 0.450000
706 1 0.750000 0.050000 0.550000
707 1 0.750000 0.050000 0.650000
708 1 0.750000 0.050000 0.750000
709 1 0.750000 0.050000 0.850000
710 1 0.750000 0.050000 0.950000
711 1 0.750000 0.150000 0.050000
712 1 0.750000 0.150000 0.150000
713 1 0.750000 0.150000 0.250000
714 1 0.750000 0.150000 0.350000
715 1 0.750000 0.150000 0.450000
716 1 0.750000 0.150000 0.550000
717 1 0.750000 0.150000 0.650000
718 1 0.750000 0.150000 0.750000
719 1 0.750000 0.150000 0.850000
720 1 0.750000 0.150000 0.950000
721 1 0.750000 0.250000 0.050000
722 1 0.750000 0.250000 0.150000
723 1 0.750000 0.250000 0.250000
724 1 0.750000 0.250000 0.350000
725 1 0.750000 0.250000 0.450000
726 1 0.750000 0.250000 0.550000
727 1 0.750000 0.250000 0.650000
728 1 0.750000 0.250000 0.750000
729 1 0.750000 0.250000 0.850000
730 1 0.750000 0.250000 0.950000
731 1 0.750000 0.350000 0.050000
732 1 0.750000 0.350000 0.150000
733 1 0.750000 0.350000 0.250000
734 1 0.750000 0.350000 0.350000
735 1 0.750000 0.350000 0.450000
736 1 0.750000 0.350000 0.550000
737 1 0.750000 0.350000 0.650000
738 1 0.750000 0.350000 0.750000
739 1 0.750000 0.350000 0.850000
740 1 0.750000 0.350000 0.950000
741 1 0.750000 0.450000 0.050000
742 1 0.750000 0.450000 0.150000
743 1 0.750000 0.450000 0.250000
744 1 0.750000 0.450000 0.350000
745 1 0.750000 0.450000 0.450000
746 1 0.750000 0.450000 0.550000
747 1 0.750000 0.450000 0.650000
748 1 0.750000 0.450000 0.750000
749 1 0.750000 0.450000 0.850000
750 1 0.750000 0.450000 0.950000
751 1 0.750000 0.550000 0.050000
752 1 0.750000 0.550000 0.150000
753 1 0.750000 0.550000 0.250000
754 1 0.750000 0.550000 0.350000
755 1 0.750000 0.550000 0.450000
756 1 0.750000 0.550000 0.550000
757 1 0.750000 0.550000 0.650000
758 1 0.750000 0.550000 0.750000
759 1 0.750000 0.550000 0.850000
760 1 0.750000 0.550000 0.950000
761 1 0.750000 0.650000 0.050000
762 1 0.750000 0.650000 0.150000
763 1 0.750000 0.650000 0.250000
764 1 0.750000 0.650000 0.350000
765 1 0.750000 0.650000 0.450000
766 1 0.750000 0.650000 0.550000
767 1 0.750000 0.650000 0.650000
768 1 0.750000 0.650000 0.750000
769 1 0.750000 0.650000 0.850000
770 1 0.750000 0.650000 0.950000
771 1 0.750000 0.750000 0.050000
772 1 0.750000 0.750000 0.150000
773 1 0.750000 0.750000 0.250000
774 1 0.750000 0.750000 0.350000
775 1 0.750000 0.750000 0.450000
776 1 0.750000 0.750000 0.550000
777 1 0.750000 0.750000 0.650000
778 1 0.750000 0.750000 0.750000
779 1 0.750000 0.750000 0.850000
780 1 0.750000 0.750000 0.950000
781 1 0.750000 0.850000 0.050000
782 1 0.750000 0.850000 0.150000
783 1 0.750000 0.850000 0.250000
784 1 0.750000 0.850000 0.350000
785 1 0.750000 0.850000 0.450000
786 1 0.750000 0.850000 0.550000
787 1 0.750000 0.850000 0.650000
788 1 0.750000 0.850000 0.750000
789 1 0.750000 0.850000 0.850000
790 1 0.750000 0.850000 0.950000
791 1 0.750000 0.950000 0.050000
792 1 0.750000 0.950000 0.150000
793 1 0.750000 0.950000 0.250000
794 1 0.750000 0.950000 0.350000
795 1 0.750000 0.950000 0.450000
796 1 0.750000 0.950000 0.550000
797 1 0.750000 0.950000 0.650000
798 1 0.750000 0.950000 0.750000
799 1 0.750000 0.950000 0.850000
800 1 0.750000 0.950000 0.950000
801 1 0.850000 0.050000 0.050000
802 1 0.850000 0.050000 0.150000
803 1 0.850000 0.050000 0.250000
804 1 0.850000 0.050000 0.350000
805 1 0.850000 0.050000 0.450000
806 1 0.850000 0.050000 0.550000
807 1 0.850000 0.050000 0.650000
808 1 0.850000 0.050000 0.750000
809 1 0.850000 0.050000 0.850000
810 1 0.850000 0.050000 0.950000
811 1 0.850000 0.150000 0.050000
812 1 0.850000 0.150000 0.150000
813 1 0.850000 0.150000 0.250000
814 1 0.850000 0.150000 0.350000
815 1 0.850000 0.150000 0.450000
816 1 0.850000 0.150000 0.550000
817 1 0.850000 0.150000 0.650000
818 1 0.850000 0.150000 0.750000
819 1 0.850000 0.150000 0.850000
820 1 0.850000 0.150000 0.950000
821 1 0.850000 0.250000 0.050000
822 1 0.850000 0.250000 0.150000
823 1 0.850000 0.250000 0.250000
824 1 0.850000 0.250000 0.350000
825 1 0.850000 0.250000 0.450000
826 1 0.850000 0.250000 0.550000
827 1 0.850000 0.250000 0.650000
828 1 0.850000 0.250000 0.750000
829 1 0.850000 0.250000 0.850000
830 1 0.850000 0.250000 0.950000
831 1 0.850000 0.350000 0.050000
832 1 0.850000 0.350000 0.150000
833 1 0.850000 0.350000 0.250000
834 1 0.850000 0.350000 0.350000
835 1 0.850000 0.350000 0.450000
836 1 0.850000 0.350000 0.550000
837 1 0.850000 0.350000 0.650000
838 1 0.850000 0.350000 0.750000
839 1 0.850000 0.350000 0.850000
840 1 0.850000 0.350000 0.950000
841 1 0.850000 0.450000 0.050000
842 1 0.850000 0.450000 0.150000
843 1 0.850000 0.450000 0.250000
844 1 0.850000 0.450000 0.350000
845 1 0.850000 0.450000 0.450000
846 1 0.850000 0.450000 0.550000
847 1 0.850000 0.450000 0.650000
848 1 0.850000 0.450000 0.750000
849 1 0.850000 0.450000 0.850000
850 1 0.850000 0.450000 0.950000
851 1 0.850000 0.550000 0.050000
852 1 0.850000 0.550000 0.150000
853 1 0.850000 0.550000 0.250000
854 1 0.850000 0.550000 0.350000
855 1 0.850000 0.550000 0.450000
856 1 0.850000 0.550000 0.550000
857 1 0.850000 0.550000 0.650000
858 1 0.850000 0.550000 0.750000
859 1 0.850000 0.550000 0.850000
860 1 0.850000 0.550000 0.950000
861 1 0.850000 0.650000 0.050000
862 1 0.850000 0.650000 0.150000
863 1 0.850000 0.650000 0.250000
864 1 0.850000 0.650000 0.350000
865 1 0.850000 0.650000 0.450000
866 1 0.850000 0.650000 0.550000
867 1 0.850000 0.650000 0.650000
868 1 0.850000 0.650000 0.750000
869 1 0.850000 0.650000 0.850000
870 1 0.850000 0.650000 0.950000
871 1 0.850000 0.750000 0.050000
872 1 0.850000 0.750000 0.150000
873 1 0.850000 0.750000 0.250000
874 1 0.850000 0.750000 0.350000
875 1 0.850000 0.750000 0.450000
876 1 0.850000 0.750000 0.550000
877 1 0.850000 0.750000 0.650000
878 1 0.850000 0.750000 0.750000
879 1 0.850000 0.750000 0.850000
880 1 0.850000 0.750000 0.950000
881 1 0.850000 0.850000 0.050000
882 1 0.850000 0.850000 0.150000
883 1 0.850000 0.850000 0.250000
884 1 0.850000 0.850000 0.350000
885 1 0.850000 0.850000 0.450000
886 1 0.850000 0.850000 0.550000
887 1 0.850000 0.850000 0.650000
888 1 0.850000 0.850000 0.750000
889 1 0.850000 0.850000 0.850000
890 1 0.850000 0.850000 0.950000
891 1 0.850000 0.950000 0.050000
892 1 0.850000 0.950000 0.150000
893 1 0.850000 0.950000 0.250000
894 1 0.850000 0.950000 0.350000
895 1 0.850000 0.950000 0.450000
896 1 0.850000 0.950000 0.550000
897 1 0.850000 0.950000 0.650000
898 1 0.850000 0.950000 0.750000
899 1 0.850000 0.950000 0.850000
900 1 0.850000 0.950000 0.950000
901 1 0.950000 0.050000 0.050000
902 1 0.950000 0.050000 0.150000
903 1 0.950000 0.050000 0.250000
904 1 0.950000 0.050000 0.350000
905 1 0.950000 0.050000 0.450000
906 1 0.950000 0.050000 0.550000
907 1 0.950000 0.050000 0.650000
908 1 0.950000 0.050000 0.750000